# OOMMF OVF 2.0
#
# Segment count: 000002
#
# Begin: Segment
# Begin: Header
#
# Title: SPIRIT Version 2.0.1 (85a9867d0cb67)
#
# Desc: Image 1 of 2. -
#
# valuedim: 3   ## field dimensionality
# valueunits: none none none
# valuelabels: spin_x spin_y spin_z
#
## Fundamental mesh measurement unit. Treated as a label:
# meshunit: nm
#
# xmin: 0
# ymin: 0
# zmin: 0
# xmax: 2.9
# ymax: 2.9
# zmax: 2.9
#
# meshtype: rectangular
# xbase: 0
# ybase: 0
# zbase: 0
# xstepsize: 0.1
# ystepsize: 0.1
# zstepsize: 0.1
# xnodes: 30
# ynodes: 30
# znodes: 30
#
# End: Header
#
# Begin: Data Text
       -0.142523483879        0.860894351476        0.488413730499
       -0.261215486129        0.662830912464        0.701727619015
       -0.400388177296        0.521842906407        0.753239197410
       -0.519059449761        0.445011528280        0.729754772038
       -0.605310682518        0.416288046698        0.678456512833
       -0.659767075787        0.417841275191        0.624592726866
       -0.688623128588        0.434852038634        0.580260192733
       -0.699735842044        0.456731308298        0.549332561732
       -0.700331419143        0.477085822119        0.530966121042
       -0.695915911723        0.492953096873        0.522205216456
       -0.690062275310        0.503716827360        0.519695501258
       -0.684699953947        0.510073208912        0.520587451458
       -0.680583540256        0.513252938357        0.522855109950
       -0.677739993203        0.514532215522        0.525285732534
       -0.675812566867        0.514970481029        0.527335546056
       -0.674295418023        0.515290794561        0.528962273016
       -0.672686246227        0.515835622837        0.530477920700
       -0.670590045369        0.516556710122        0.532426667514
       -0.667799173694        0.517017969440        0.535477994777
       -0.664363219814        0.516400929255        0.540325450468
       -0.660652603065        0.513503505237        0.547587699069
       -0.657415705354        0.506715695560        0.557713003458
       -0.655831130356        0.493941383334        0.570883033804
       -0.657561337988        0.472417282120        0.586885847792
       -0.664811303571        0.438369724899        0.604861897408
       -0.680359791030        0.386484908534        0.622687698790
       -0.707396886752        0.309368584141        0.635516108183
       -0.748631110351        0.197874099315        0.632769548441
       -0.803376729626        0.044961474841        0.593771248947
       -0.860894351476       -0.142523483879        0.488413730499
        0.044961474841        0.803376729626        0.593771248947
       -0.044115524194        0.589845037680        0.806310518379
       -0.158458448802        0.448264554512        0.879744172571
       -0.267906273290        0.372288590728        0.888609832235
       -0.357823198148        0.342070040810        0.868878959377
       -0.423291574867        0.340071055815        0.839747533276
       -0.465529835493        0.352837671114        0.811657286118
       -0.489035055114        0.370903052896        0.789478080901
       -0.499348822909        0.388402952725        0.774463620433
       -0.501577361972        0.402417186036        0.765820186689
       -0.499660283465        0.412120685366        0.761902974020
       -0.496214449005        0.417942808364        0.760982936428
       -0.492710559874        0.420891154997        0.761634387245
       -0.489773166583        0.422090448747        0.762864272576
       -0.487474290833        0.422508227999        0.764104451662
       -0.485567072827        0.422811071681        0.765150583512
       -0.483656611056        0.423300747043        0.766089263816
       -0.481328237131        0.423895659758        0.767225910523
       -0.478255655552        0.424135985530        0.769012479555
       -0.474302568345        0.423197568968        0.771972079340
       -0.469621065518        0.419900750076        0.776620508941
       -0.464744617128        0.412695959679        0.783386549358
       -0.460675411167        0.399597757141        0.792527474625
       -0.458973702954        0.378024154089        0.804015471818
       -0.461864447753        0.344484299332        0.817319888059
       -0.472366696934        0.294059587037        0.830902318506
       -0.494379102847        0.219675558783        0.841030291691
       -0.532402002220        0.111335873368        0.839137909604
       -0.589845037680       -0.044115524194        0.806310518379
       -0.662830912464       -0.261215486129        0.701727619015
        0.197874099315        0.748631110351        0.632769548441
        0.111335873368        0.532402002220        0.839137909604
        0.009919374992        0.390888165071        0.920384728474
       -0.087531930700        0.313168409221        0.945655174244
       -0.170898359936        0.278673906207        0.945057990057
       -0.235646755891        0.270741363568        0.933364730688
       -0.281426704393        0.277231137441        0.918663108265
       -0.310649316539        0.289735206990        0.905290291544
       -0.327065069437        0.302919305939        0.895135930708
       -0.334609681128        0.313913174247        0.888535244281
       -0.336674929970        0.321661511573        0.884976758736
       -0.335798523953        0.326284967468        0.883616133463
       -0.333657819137        0.328530815118        0.883594909020
       -0.331221526565        0.329353840990        0.884204924079
       -0.328941426064        0.329625372058        0.884954604663
       -0.326919478183        0.329950080361        0.885582632652
       -0.325036737578        0.330569440443        0.886044561108
       -0.323060899551        0.331331925292        0.886482267428
       -0.320754063047        0.331707197902        0.887179331307
       -0.317990245445        0.330818115185        0.888505249544
       -0.314878199834        0.327463720785        0.890853091615
       -0.311879275069        0.320106390205        0.894574321525
       -0.309913669462        0.306791310652        0.899907000300
       -0.310456535990        0.284952584370        0.906873069355
       -0.315629858186        0.251037377148        0.915072689952
       -0.328284150956        0.199851024735        0.923195041225
       -0.352012097925        0.123505045524        0.927811396052
       -0.390888165071        0.009919374992        0.920384728474
       -0.448264554512       -0.158458448802        0.879744172571
       -0.521842906407       -0.400388177296        0.753239197410
        0.309368584141        0.707396886752        0.635516108183
        0.219675558783        0.494379102847        0.841030291691
        0.123505045524        0.352012097925        0.927811396052
        0.034027468345        0.270524916017        0.962111428688
       -0.042703696520        0.230289759358        0.972184664063
       -0.103970233279        0.215542926111        0.970943581057
       -0.149514816668        0.215079238911        0.965083540729
       -0.180877155511        0.221251993358        0.958295888570
       -0.200623885421        0.229150435390        0.952491540413
       -0.211626969551        0.235991067898        0.948431463855
       -0.216543597868        0.240593589031        0.946162562745
       -0.217551148139        0.242894958423        0.945343079054
       -0.216296881973        0.243505063302        0.945473925074
       -0.213968603751        0.243314935437        0.946052471485
       -0.211389287251        0.243169675307        0.946669466206
       -0.209079634853        0.243626847319        0.947064763126
       -0.207291563131        0.244821961376        0.947149626555
       -0.206053119653        0.246441734057        0.946999780146
       -0.205259781523        0.247773716836        0.946824486024
       -0.204814031109        0.247780428412        0.946919253135
       -0.204786946429        0.245147153329        0.947610246772
       -0.205570285729        0.238264856396        0.949194772337
       -0.208000106237        0.225115462671        0.951871306570
       -0.213447865889        0.203015585326        0.955627898642
       -0.223879525923        0.168147361414        0.960002303498
       -0.241870164092        0.114772135692        0.963496850328
       -0.270524916017        0.034027468345        0.962111428688
       -0.313168409221       -0.087531930700        0.945655174244
       -0.372288590728       -0.267906273290        0.888609832235
       -0.445011528280       -0.519059449761        0.729754772038
        0.386484908534        0.680359791030        0.622687698790
        0.294059587037        0.472366696934        0.830902318506
        0.199851024735        0.328284150956        0.923195041225
        0.114772135692        0.241870164092        0.963496850328
        0.042474049510        0.195215828672        0.979840158064
       -0.015835317935        0.173390923191        0.984725764089
       -0.060379345363        0.165779700467        0.984312666568
       -0.092405576315        0.165186875664        0.981923879725
       -0.113775906620        0.166974483039        0.979374578538
       -0.126565514742        0.168460298931        0.977549128260
       -0.132769861834        0.168476383571        0.976723027254
       -0.134174645981        0.166989028777        0.976786480580
       -0.132367752797        0.164715558903        0.977418826642
       -0.128803930741        0.162708081122        0.978230866290
       -0.124812886523        0.161929599998        0.978877187395
       -0.121501794197        0.162908513542        0.979131314085
       -0.119611438614        0.165565423664        0.978918379764
       -0.119444912476        0.169236595546        0.978310731624
       -0.120944958231        0.172825632916        0.977498653547
       -0.123900557380        0.174970540080        0.976746621179
       -0.128200521987        0.174134009618        0.976341115009
       -0.134055353713        0.168572351892        0.976530861938
       -0.142150423746        0.156166475823        0.977448356108
       -0.153730438454        0.134089807943        0.978972356963
       -0.170625737586        0.098256709255        0.980424641041
       -0.195215828672        0.042474049510        0.979840158064
       -0.230289759358       -0.042703696520        0.972184664063
       -0.278673906207       -0.170898359936        0.945057990057
       -0.342070040810       -0.357823198148        0.868878959377
       -0.416288046698       -0.605310682518        0.678456512833
        0.438369724899        0.664811303571        0.604861897408
        0.344484299332        0.461864447753        0.817319888059
        0.251037377148        0.315629858186        0.915072689952
        0.168147361414        0.223879525923        0.960002303498
        0.098256709255        0.170625737586        0.980424641041
        0.041654858632        0.141685848021        0.989034879680
       -0.002249411918        0.126794359741        0.991926474334
       -0.034552872085        0.118966197136        0.992296902630
       -0.056611241609        0.113692231454        0.991901831751
       -0.069838467067        0.108387778410        0.991652498615
       -0.075612446484        0.102042571163        0.991902249018
       -0.075335279724        0.094935507279        0.992628754916
       -0.070612440992        0.088268824856        0.993590709365
       -0.063398690957        0.083627593582        0.994478271043
       -0.055908026244        0.082318801542        0.995036636267
       -0.050221927178        0.084819717573        0.995129827480
       -0.047794470598        0.090579619830        0.994741685591
       -0.049174336650        0.098215754624        0.993949470627
       -0.054110060681        0.105913871117        0.992901985716
       -0.061947079627        0.111777473772        0.991800562453
       -0.072092422612        0.113969538164        0.990865090198
       -0.084370377982        0.110627687847        0.990274282207
       -0.099215488180        0.099597611888        0.990068988814
       -0.117734639685        0.078007528793        0.989976454301
       -0.141685848021        0.041654858632        0.989034879680
       -0.173390923191       -0.015835317935        0.984725764089
       -0.215542926111       -0.103970233279        0.970943581057
       -0.270741363568       -0.235646755891        0.933364730688
       -0.340071055815       -0.423291574867        0.839747533276
       -0.417841275191       -0.659767075787        0.624592726866
        0.472417282120        0.657561337988        0.586885847792
        0.378024154089        0.458973702954        0.804015471818
        0.284952584370        0.310456535990        0.906873069355
        0.203015585326        0.213447865889        0.955627898642
        0.134089807943        0.153730438454        0.978972356963
        0.078007528793        0.117734639685        0.989976454301
        0.034037947959        0.095360424970        0.994860697509
        0.001307868949        0.079636829938        0.996823086007
       -0.021003608526        0.066040715247        0.997595846202
       -0.033578231287        0.052059881075        0.998079291022
       -0.037045100828        0.036999825868        0.998628396046
       -0.032314447213        0.021844622105        0.999239004936
       -0.021100748479        0.008883369931        0.999737887725
       -0.006315153526        0.000864475503        0.999979685553
        0.008158270485       -0.000209592540        0.999966698792
        0.018462839783        0.005938396448        0.999811911809
        0.022005357525        0.017703387173        0.999601097600
        0.018109886432        0.032271388125        0.999315060190
        0.007745200744        0.046578270688        0.998884616242
       -0.007355352959        0.057974203485        0.998290984890
       -0.025607234948        0.064365169391        0.997597811990
       -0.046153677534        0.063946748169        0.996885475593
       -0.069074147334        0.054740026126        0.996108574258
       -0.095360424970        0.034037947959        0.994860697509
       -0.126794359741       -0.002249411918        0.991926474334
       -0.165779700467       -0.060379345363        0.984312666568
       -0.215079238911       -0.149514816668        0.965083540729
       -0.277231137441       -0.281426704393        0.918663108265
       -0.352837671114       -0.465529835493        0.811657286118
       -0.434852038634       -0.688623128588        0.580260192733
        0.493941383334        0.655831130356        0.570883033804
        0.399597757141        0.460675411167        0.792527474625
        0.306791310652        0.309913669462        0.899907000300
        0.225115462671        0.208000106237        0.951871306570
        0.156166475823        0.142150423746        0.977448356108
        0.099597611888        0.099215488180        0.990068988814
        0.054740026126        0.069074147334        0.996108574258
        0.021098417620        0.044562911439        0.998783762232
       -0.001428120574        0.020953920889        0.999779422508
       -0.012494427096       -0.004282894906        0.999912769247
       -0.011562064809       -0.031374131730        0.999440834925
        0.001351317189       -0.058065892559        0.998311838086
        0.024448709462       -0.079959758648        0.996498217561
        0.053109643790       -0.091987637724        0.994342818269
        0.080261195114       -0.090849083550        0.992625097697
        0.098682686272       -0.076920057237        0.992141639195
        0.103860733060       -0.054146635590        0.993116856157
        0.095342262934       -0.028144419968        0.995046604197
        0.075912287962       -0.004039915868        0.997106315102
        0.049568034728        0.014658718357        0.998663172401
        0.019703503643        0.025950927454        0.999469019684
       -0.011779593932        0.028564082766        0.999522553194
       -0.044562911439        0.021098417620        0.998783762232
       -0.079636829938        0.001307868949        0.996823086007
       -0.118966197136       -0.034552872085        0.992296902630
       -0.165186875664       -0.092405576315        0.981923879725
       -0.221251993358       -0.180877155511        0.958295888570
       -0.289735206990       -0.310649316539        0.905290291544
       -0.370903052896       -0.489035055114        0.789478080901
       -0.456731308298       -0.699735842044        0.549332561732
        0.506715695560        0.657415705354        0.557713003458
        0.412695959679        0.464744617128        0.783386549358
        0.320106390205        0.311879275069        0.894574321525
        0.238264856396        0.205570285729        0.949194772337
        0.168572351892        0.134055353713        0.976530861938
        0.110627687847        0.084370377982        0.990274282207
        0.063946748169        0.046153677534        0.996885475593
        0.028564082766        0.011779593932        0.999522553194
        0.005370127075       -0.023997133551        0.999697603937
       -0.003749497045       -0.063980495115        0.997944105407
        0.003741516233       -0.107876159195        0.994157299090
        0.029693382495       -0.151387450812        0.988028411926
        0.072673292088       -0.186230141463        0.979814741177
        0.125265782360       -0.202762988043        0.971182606130
        0.174382215418       -0.195221752476        0.965131758003
        0.206338133850       -0.165766742767        0.964337058041
        0.213276336566       -0.123475126046        0.969157932181
        0.195846227708       -0.079385068704        0.977416117096
        0.160893104852       -0.041823732454        0.986085282425
        0.116835993897       -0.014793994614        0.993041030498
        0.070111312217        0.000853364530        0.997538809104
        0.023997133551        0.005370127075        0.999697603937
       -0.020953920889       -0.001428120574        0.999779422508
       -0.066040715247       -0.021003608526        0.997595846202
       -0.113692231454       -0.056611241609        0.991901831751
       -0.166974483039       -0.113775906620        0.979374578538
       -0.229150435390       -0.200623885421        0.952491540413
       -0.302919305939       -0.327065069437        0.895135930708
       -0.388402952725       -0.499348822909        0.774463620433
       -0.477085822119       -0.700331419143        0.530966121042
        0.513503505237        0.660652603065        0.547587699069
        0.419900750076        0.469621065518        0.776620508941
        0.327463720785        0.314878199834        0.890853091615
        0.245147153329        0.204786946429        0.947610246772
        0.174134009618        0.128200521987        0.976341115009
        0.113969538164        0.072092422612        0.990865090198
        0.064365169391        0.025607234949        0.997597811990
        0.025950927454       -0.019703503643        0.999469019684
        0.000853364530       -0.070111312217        0.997538809104
       -0.006855911379       -0.129270326204        0.991585689309
        0.008665236283       -0.196635347283        0.980438398819
        0.053078374944       -0.264984017468        0.962790816637
        0.126847929462       -0.319159735717        0.939173395006
        0.218624063634       -0.340496064108        0.914475778316
        0.304422657133       -0.318340418619        0.897767354997
        0.358304927480       -0.259226022646        0.896894334984
        0.366455407364       -0.183272845781        0.912206938371
        0.332433419651       -0.111832619217        0.936472896980
        0.271415708333       -0.057704435848        0.960730821486
        0.199977267664       -0.023653387348        0.979514986963
        0.129270326204       -0.006855911379        0.991585689309
        0.063980495115       -0.003749497045        0.997944105407
        0.004282894906       -0.012494427096        0.999912769247
       -0.052059881075       -0.033578231287        0.998079291022
       -0.108387778410       -0.069838467067        0.991652498615
       -0.168460298931       -0.126565514742        0.977549128260
       -0.235991067898       -0.211626969551        0.948431463855
       -0.313913174247       -0.334609681128        0.888535244281
       -0.402417186036       -0.501577361972        0.765820186689
       -0.492953096873       -0.695915911723        0.522205216456
        0.516400929255        0.664363219814        0.540325450468
        0.423197568968        0.474302568345        0.771972079340
        0.330818115185        0.317990245445        0.888505249544
        0.247780428412        0.204814031109        0.946919253135
        0.174970540080        0.123900557380        0.976746621179
        0.111777473772        0.061947079627        0.991800562453
        0.057974203485        0.007355352959        0.998290984890
        0.014658718357       -0.049568034728        0.998663172401
       -0.014793994614       -0.116835993897        0.993041030498
       -0.023653387348       -0.199977267664        0.979514986963
       -0.001258567976       -0.299116464469        0.954215780990
        0.064934098342       -0.403478456140        0.912682145275
        0.180909154004       -0.486483704894        0.854754633138
        0.331415960126       -0.512168761790        0.792367730805
        0.474721148586       -0.460216017900        0.750227330850
        0.563247150992       -0.347073829755        0.749861589628
        0.572448173177       -0.215585313316        0.791091689824
        0.511203463315       -0.105832683216        0.852918789955
        0.409904917160       -0.035547787647        0.911435304167
        0.299116464469       -0.001258567976        0.954215780990
        0.196635347283        0.008665236283        0.980438398819
        0.107876159195        0.003741516233        0.994157299090
        0.031374131730       -0.011562064809        0.999440834925
       -0.036999825868       -0.037045100828        0.998628396046
       -0.102042571163       -0.075612446484        0.991902249018
       -0.168476383571       -0.132769861834        0.976723027254
       -0.240593589031       -0.216543597868        0.946162562745
       -0.321661511573       -0.336674929970        0.884976758736
       -0.412120685366       -0.499660283465        0.761902974020
       -0.503716827360       -0.690062275310        0.519695501258
        0.517017969440        0.667799173694        0.535477994777
        0.424135985530        0.478255655552        0.769012479555
        0.331707197902        0.320754063047        0.887179331307
        0.247773716836        0.205259781523        0.946824486024
        0.172825632916        0.120944958231        0.977498653547
        0.105913871117        0.054110060681        0.992901985716
        0.046578270688       -0.007745200744        0.998884616242
       -0.004039915868       -0.075912287962        0.997106315102
       -0.041823732454       -0.160893104852        0.986085282425
       -0.057704435848       -0.271415708332        0.960730821486
       -0.035547787647       -0.409904917160        0.911435304167
        0.047122866637       -0.562061101343        0.825752235115
        0.207615108981       -0.684006077094        0.699307981523
        0.430530303775       -0.709787493790        0.557535085166
        0.651694021562       -0.602599956232        0.460617189225
        0.792106371458       -0.399443147935        0.461532954255
        0.808593744023       -0.184809366674        0.558588985853
        0.714383519001       -0.029245841298        0.699142952869
        0.562061101343        0.047122866637        0.825752235115
        0.403478456140        0.064934098342        0.912682145275
        0.264984017468        0.053078374944        0.962790816637
        0.151387450812        0.029693382495        0.988028411926
        0.058065892559        0.001351317189        0.998311838086
       -0.021844622105       -0.032314447213        0.999239004936
       -0.094935507279       -0.075335279724        0.992628754916
       -0.166989028777       -0.134174645981        0.976786480580
       -0.242894958423       -0.217551148139        0.945343079054
       -0.326284967468       -0.335798523953        0.883616133463
       -0.417942808364       -0.496214449005        0.760982936428
       -0.510073208912       -0.684699953947        0.520587451458
        0.516556710122        0.670590045369        0.532426667514
        0.423895659758        0.481328237131        0.767225910523
        0.331331925292        0.323060899551        0.886482267428
        0.246441734057        0.206053119653        0.946999780146
        0.169236595546        0.119444912476        0.978310731624
        0.098215754624        0.049174336650        0.993949470627
        0.032271388125       -0.018109886432        0.999315060190
       -0.028144419968       -0.095342262934        0.995046604197
       -0.079385068704       -0.195846227708        0.977416117096
       -0.111832619217       -0.332433419650        0.936472896980
       -0.105832683216       -0.511203463315        0.852918789955
       -0.029245841298       -0.714383519001        0.699142952869
        0.151146116627       -0.874758262180        0.460383355668
        0.428955496978       -0.884297694763        0.184430931922
        0.725544162810       -0.688152273914       -0.005667073213
        0.933065513574       -0.359685744120       -0.003861716787
        0.981481409998       -0.043086089888        0.186648950401
        0.874758262180        0.151146116627        0.460383355668
        0.684006077094        0.207615108981        0.699307981523
        0.486483704894        0.180909154004        0.854754633138
        0.319159735717        0.126847929462        0.939173395006
        0.186230141463        0.072673292088        0.979814741177
        0.079959758648        0.024448709462        0.996498217561
       -0.008883369931       -0.021100748479        0.999737887725
       -0.088268824856       -0.070612440992        0.993590709365
       -0.164715558903       -0.132367752797        0.977418826642
       -0.243505063302       -0.216296881973        0.945473925074
       -0.328530815118       -0.333657819137        0.883594909020
       -0.420891154997       -0.492710559874        0.761634387245
       -0.513252938357       -0.680583540256        0.522855109950
        0.515835622837        0.672686246227        0.530477920700
        0.423300747043        0.483656611056        0.766089263816
        0.330569440443        0.325036737578        0.886044561108
        0.244821961376        0.207291563131        0.947149626555
        0.165565423664        0.119611438614        0.978918379764
        0.090579619830        0.047794470598        0.994741685591
        0.017703387173       -0.022005357525        0.999601097600
       -0.054146635590       -0.103860733060        0.993116856157
       -0.123475126046       -0.213276336566        0.969157932181
       -0.183272845781       -0.366455407364        0.912206938371
       -0.215585313316       -0.572448173177        0.791091689824
       -0.184809366674       -0.808593744023        0.558588985853
       -0.043086089888       -0.981481409998        0.186648950401
        0.224848402154       -0.942814548641       -0.246056747355
        0.551209585178       -0.634955732485       -0.541294015294
        0.822133451396       -0.178924513267       -0.540446673269
        0.942814548641        0.224848402154       -0.246056747355
        0.884297694763        0.428955496978        0.184430931922
        0.709787493790        0.430530303775        0.557535085166
        0.512168761790        0.331415960126        0.792367730804
        0.340496064109        0.218624063634        0.914475778316
        0.202762988043        0.125265782360        0.971182606130
        0.091987637724        0.053109643790        0.994342818269
       -0.000864475503       -0.006315153526        0.999979685553
       -0.083627593582       -0.063398690957        0.994478271043
       -0.162708081122       -0.128803930741        0.978230866290
       -0.243314935437       -0.213968603751        0.946052471485
       -0.329353840990       -0.331221526565        0.884204924079
       -0.422090448747       -0.489773166583        0.762864272576
       -0.514532215522       -0.677739993203        0.525285732534
        0.515290794561        0.674295418023        0.528962273016
        0.422811071681        0.485567072827        0.765150583512
        0.329950080361        0.326919478183        0.885582632652
        0.243626847319        0.209079634853        0.947064763126
        0.162908513542        0.121501794197        0.979131314085
        0.084819717573        0.050221927178        0.995129827480
        0.005938396448       -0.018462839783        0.999811911809
       -0.076920057237       -0.098682686272        0.992141639195
       -0.165766742767       -0.206338133850        0.964337058041
       -0.259226022646       -0.358304927480        0.896894334984
       -0.347073829755       -0.563247150992        0.749861589628
       -0.399443147935       -0.792106371458        0.461532954255
       -0.359685744120       -0.933065513574       -0.003861716787
       -0.178924513267       -0.822133451396       -0.540446673269
        0.113710946477       -0.420512271340       -0.900132907022
        0.420512271340        0.113710946476       -0.900132907022
        0.634955732485        0.551209585178       -0.541294015294
        0.688152273914        0.725544162810       -0.005667073213
        0.602599956232        0.651694021562        0.460617189225