# OOMMF OVF 2.0
#
# Segment count: 000001
#
# Begin: Segment
# Begin: Header
#
# Title: SPIRIT Version 2.0.1 (f21dbacbd45b0)
#
# Desc: -
#
# valuedim: 3   ## field dimensionality
# valueunits: none none none
# valuelabels: spin_x spin_y spin_z
#
## Fundamental mesh measurement unit. Treated as a label:
# meshunit: nm
#
# xmin: 0
# ymin: 0
# zmin: 0
# xmax: 0.9
# ymax: 0.9
# zmax: 0
#
# meshtype: rectangular
# xbase: 0
# ybase: 0
# zbase: 0
# xstepsize: 0.1
# ystepsize: 0.1
# zstepsize: 0.1
# xnodes: 10
# ynodes: 10
# znodes: 1
#
# End: Header
#
# Begin: Data Text
        0.031992883213       -0.031992883213        0.998975931065
        0.051077394467       -0.088007907581        0.994809382735
        0.089193064492       -0.118200918268        0.988975803631
        0.138243486120       -0.104202308787        0.984901323681
        0.174958750169       -0.042010039960        0.983679110423
        0.174958750169        0.042010039960        0.983679110423
        0.138243486120        0.104202308787        0.984901323681
        0.089193064492        0.118200918268        0.988975803631
        0.051077394467        0.088007907581        0.994809382735
        0.031992883213        0.031992883213        0.998975931065
        0.088007907581       -0.051077394467        0.994809382735
        0.146900135544       -0.146900135544        0.978182345145
        0.269000919342       -0.212180721477        0.939477432846
        0.431645105888       -0.200330412209        0.879517042761
        0.554425026889       -0.083811797715        0.828002700553
        0.554425026889        0.083811797715        0.828002700553
        0.431645105888        0.200330412209        0.879517042761
        0.269000919342        0.212180721477        0.939477432846
        0.146900135544        0.146900135544        0.978182345145
        0.088007907581        0.051077394467        0.994809382735
        0.118200918268       -0.089193064492        0.988975803631
        0.212180721477       -0.269000919342        0.939477432846
        0.417649920044       -0.417649920044        0.806930659087
        0.700102329709       -0.417023165516        0.579610565258
        0.907571603163       -0.177997689826        0.380303309935
        0.907571603163        0.177997689826        0.380303309935
        0.700102329709        0.417023165516        0.579610565258
        0.417649920044        0.417649920044        0.806930659087
        0.212180721477        0.269000919342        0.939477432846
        0.118200918268        0.089193064492        0.988975803631
        0.104202308787       -0.138243486120        0.984901323681
        0.200330412209       -0.431645105888        0.879517042761
        0.417023165516       -0.700102329709        0.579610565258
        0.705564854134       -0.705564854134        0.066003584924
        0.890300688456       -0.294534342996       -0.347295558466
        0.890300688456        0.294534342996       -0.347295558466
        0.705564854134        0.705564854134        0.066003584924
        0.417023165516        0.700102329709        0.579610565258
        0.200330412209        0.431645105888        0.879517042761
        0.104202308787        0.138243486120        0.984901323681
        0.042010039960       -0.174958750169        0.983679110423
        0.083811797715       -0.554425026889        0.828002700553
        0.177997689826       -0.907571603163        0.380303309935
        0.294534342996       -0.890300688456       -0.347295558466
        0.355951689191       -0.355951689191       -0.864058325534
        0.355951689191        0.355951689191       -0.864058325534
        0.294534342996        0.890300688456       -0.347295558466
        0.177997689826        0.907571603163        0.380303309935
        0.083811797715        0.554425026889        0.828002700553
        0.042010039960        0.174958750169        0.983679110423
       -0.042010039960       -0.174958750169        0.983679110423
       -0.083811797715       -0.554425026889        0.828002700553
       -0.177997689826       -0.907571603163        0.380303309935
       -0.294534342996       -0.890300688456       -0.347295558466
       -0.355951689191       -0.355951689191       -0.864058325534
       -0.355951689191        0.355951689191       -0.864058325534
       -0.294534342996        0.890300688456       -0.347295558466
       -0.177997689826        0.907571603163        0.380303309935
       -0.083811797715        0.554425026889        0.828002700553
       -0.042010039960        0.174958750169        0.983679110423
       -0.104202308787       -0.138243486120        0.984901323681
       -0.200330412209       -0.431645105888        0.879517042761
       -0.417023165516       -0.700102329709        0.579610565258
       -0.705564854134       -0.705564854134        0.066003584924
       -0.890300688456       -0.294534342996       -0.347295558466
       -0.890300688456        0.294534342996       -0.347295558466
       -0.705564854134        0.705564854134        0.066003584924
       -0.417023165516        0.700102329709        0.579610565258
       -0.200330412209        0.431645105888        0.879517042761
       -0.104202308787        0.138243486120        0.984901323681
       -0.118200918268       -0.089193064492        0.988975803631
       -0.212180721477       -0.269000919342        0.939477432846
       -0.417649920044       -0.417649920044        0.806930659087
       -0.700102329709       -0.417023165516        0.579610565258
       -0.907571603163       -0.177997689826        0.380303309935
       -0.907571603163        0.177997689826        0.380303309935
       -0.700102329709        0.417023165516        0.579610565258
       -0.417649920044        0.417649920044        0.806930659087
       -0.212180721477        0.269000919342        0.939477432846
       -0.118200918268        0.089193064492        0.988975803631
       -0.088007907581       -0.051077394467        0.994809382735
       -0.146900135544       -0.146900135544        0.978182345145
       -0.269000919342       -0.212180721477        0.939477432846
       -0.431645105888       -0.200330412209        0.879517042761
       -0.554425026889       -0.083811797715        0.828002700553
       -0.554425026889        0.083811797715        0.828002700553
       -0.431645105888        0.200330412209        0.879517042761
       -0.269000919342        0.212180721477        0.939477432846
       -0.146900135544        0.146900135544        0.978182345145
       -0.088007907581        0.051077394467        0.994809382735
       -0.031992883213       -0.031992883213        0.998975931065
       -0.051077394467       -0.088007907581        0.994809382735
       -0.089193064492       -0.118200918268        0.988975803631
       -0.138243486120       -0.104202308787        0.984901323681
       -0.174958750169       -0.042010039960        0.983679110423
       -0.174958750169        0.042010039960        0.983679110423
       -0.138243486120        0.104202308787        0.984901323681
       -0.089193064492        0.118200918268        0.988975803631
       -0.051077394467        0.088007907581        0.994809382735
       -0.031992883213        0.031992883213        0.998975931065
# End: Data Text
# End: Segment
