# OOMMF OVF 2.0
#
# Segment count: 000001
#
# Begin: Segment
# Begin: Header
#
# Title: SPIRIT Version 2.0.1 (f21dbacbd45b0)
#
# Desc: -
#
# valuedim: 3   ## field dimensionality
# valueunits: none none none
# valuelabels: spin_x spin_y spin_z
#
## Fundamental mesh measurement unit. Treated as a label:
# meshunit: nm
#
# xmin: 0
# ymin: 0
# zmin: 0
# xmax: 0.9
# ymax: 0.9
# zmax: 0
#
# meshtype: rectangular
# xbase: 0
# ybase: 0
# zbase: 0
# xstepsize: 0.1
# ystepsize: 0.1
# zstepsize: 0.1
# xnodes: 10
# ynodes: 10
# znodes: 1
#
# End: Header
#
# Begin: Data Text
        0.010198962869       -0.010198962869        0.999895975746
        0.015323539357       -0.028636971032        0.999472417344
        0.025969641868       -0.040081751572        0.998858864351
        0.040919559208       -0.037530953087        0.998457318684
        0.053730410244       -0.016138795550        0.998425050914
        0.053730410244        0.016138795550        0.998425050914
        0.040919559208        0.037530953087        0.998457318684
        0.025969641868        0.040081751572        0.998858864351
        0.015323539357        0.028636971032        0.999472417344
        0.010198962869        0.010198962869        0.999895975746
        0.028636971032       -0.015323539357        0.999472417344
        0.044799820584       -0.044799820584        0.997990957951
        0.080188329479       -0.067684756096        0.994479062428
        0.134099950247       -0.070037475459        0.988489734583
        0.184936929948       -0.033215397311        0.982188917328
        0.184936929948        0.033215397311        0.982188917328
        0.134099950247        0.070037475459        0.988489734583
        0.080188329479        0.067684756096        0.994479062428
        0.044799820584        0.044799820584        0.997990957951
        0.028636971032        0.015323539357        0.999472417344
        0.040081751572       -0.025969641868        0.998858864351
        0.067684756096       -0.080188329479        0.994479062428
        0.134543470410       -0.134543470410        0.981731179672
        0.253947171019       -0.160666659341        0.953780403923
        0.390416559000       -0.089178468883        0.916308960529
        0.390416559000        0.089178468883        0.916308960529
        0.253947171019        0.160666659341        0.953780403923
        0.134543470410        0.134543470410        0.981731179672
        0.067684756096        0.080188329479        0.994479062428
        0.040081751572        0.025969641868        0.998858864351
        0.037530953087       -0.040919559208        0.998457318684
        0.070037475459       -0.134099950247        0.988489734583
        0.160666659341       -0.253947171019        0.953780403923
        0.365010901642       -0.365010901642        0.856466043323
        0.683571705270       -0.259496397152        0.682195971565
        0.683571705270        0.259496397152        0.682195971565
        0.365010901642        0.365010901642        0.856466043323
        0.160666659341        0.253947171019        0.953780403923
        0.070037475459        0.134099950247        0.988489734583
        0.037530953087        0.040919559208        0.998457318684
        0.016138795550       -0.053730410244        0.998425050914
        0.033215397311       -0.184936929948        0.982188917328
        0.089178468883       -0.390416559000        0.916308960529
        0.259496397152       -0.683571705270        0.682195971565
        0.704771274158       -0.704771274158        0.081209003468
        0.704771274158        0.704771274158        0.081209003468
        0.259496397152        0.683571705270        0.682195971565
        0.089178468883        0.390416559000        0.916308960529
        0.033215397311        0.184936929948        0.982188917328
        0.016138795550        0.053730410244        0.998425050914
       -0.016138795550       -0.053730410244        0.998425050914
       -0.033215397311       -0.184936929948        0.982188917328
       -0.089178468883       -0.390416559000        0.916308960529
       -0.259496397152       -0.683571705270        0.682195971565
       -0.704771274158       -0.704771274158        0.081209003468
       -0.704771274158        0.704771274158        0.081209003468
       -0.259496397152        0.683571705270        0.682195971565
       -0.089178468883        0.390416559000        0.916308960529
       -0.033215397311        0.184936929948        0.982188917328
       -0.016138795550        0.053730410244        0.998425050914
       -0.037530953087       -0.040919559208        0.998457318684
       -0.070037475459       -0.134099950247        0.988489734583
       -0.160666659341       -0.253947171019        0.953780403923
       -0.365010901642       -0.365010901642        0.856466043323
       -0.683571705270       -0.259496397152        0.682195971565
       -0.683571705270        0.259496397152        0.682195971565
       -0.365010901642        0.365010901642        0.856466043323
       -0.160666659341        0.253947171019        0.953780403923
       -0.070037475459        0.134099950247        0.988489734583
       -0.037530953087        0.040919559208        0.998457318684
       -0.040081751572       -0.025969641868        0.998858864351
       -0.067684756096       -0.080188329479        0.994479062428
       -0.134543470410       -0.134543470410        0.981731179672
       -0.253947171019       -0.160666659341        0.953780403923
       -0.390416559000       -0.089178468883        0.916308960529
       -0.390416559000        0.089178468883        0.916308960529
       -0.253947171019        0.160666659341        0.953780403923
       -0.134543470410        0.134543470410        0.981731179672
       -0.067684756096        0.080188329479        0.994479062428
       -0.040081751572        0.025969641868        0.998858864351
       -0.028636971032       -0.015323539357        0.999472417344
       -0.044799820584       -0.044799820584        0.997990957951
       -0.080188329479       -0.067684756096        0.994479062428
       -0.134099950247       -0.070037475459        0.988489734583
       -0.184936929948       -0.033215397311        0.982188917328
       -0.184936929948        0.033215397311        0.982188917328
       -0.134099950247        0.070037475459        0.988489734583
       -0.080188329479        0.067684756096        0.994479062428
       -0.044799820584        0.044799820584        0.997990957951
       -0.028636971032        0.015323539357        0.999472417344
       -0.010198962869       -0.010198962869        0.999895975746
       -0.015323539357       -0.028636971032        0.999472417344
       -0.025969641868       -0.040081751572        0.998858864351
       -0.040919559208       -0.037530953087        0.998457318684
       -0.053730410244       -0.016138795550        0.998425050914
       -0.053730410244        0.016138795550        0.998425050914
       -0.040919559208        0.037530953087        0.998457318684
       -0.025969641868        0.040081751572        0.998858864351
       -0.015323539357        0.028636971032        0.999472417344
       -0.010198962869        0.010198962869        0.999895975746
# End: Data Text
# End: Segment
