# OOMMF OVF 2.0
#
# Segment count: 000020
#
# Begin: Segment
# Begin: Header
#
# Title: SPIRIT Version 2.0.1 (f21dbacbd45b0)
#
# Desc: Image 1 of 20. -
#
# valuedim: 3   ## field dimensionality
# valueunits: none none none
# valuelabels: spin_x spin_y spin_z
#
## Fundamental mesh measurement unit. Treated as a label:
# meshunit: nm
#
# xmin: 0
# ymin: 0
# zmin: 0
# xmax: 0.9
# ymax: 0.9
# zmax: 0
#
# meshtype: rectangular
# xbase: 0
# ybase: 0
# zbase: 0
# xstepsize: 0.1
# ystepsize: 0.1
# zstepsize: 0.1
# xnodes: 10
# ynodes: 10
# znodes: 1
#
# End: Header
#
# Begin: Data Text
        0.031992812402       -0.031992812402        0.998975935601
        0.051077285208       -0.088007723142        0.994809404662
        0.089192888232       -0.118200693890        0.988975846344
        0.138243241640       -0.104202132378        0.984901376661
        0.174958466296       -0.042009974066        0.983679163727
        0.174958466296        0.042009974066        0.983679163727
        0.138243241640        0.104202132378        0.984901376661
        0.089192888232        0.118200693890        0.988975846344
        0.051077285208        0.088007723142        0.994809404662
        0.031992812402        0.031992812402        0.998975935601
        0.088007723142       -0.051077285208        0.994809404662
        0.146899841658       -0.146899841658        0.978182433415
        0.269000439851       -0.212180351941        0.939477653598
        0.431644464479       -0.200330124503        0.879517423080
        0.554424321178       -0.083811693857        0.828003183605
        0.554424321178        0.083811693857        0.828003183605
        0.431644464479        0.200330124503        0.879517423080
        0.269000439851        0.212180351941        0.939477653598
        0.146899841658        0.146899841658        0.978182433415
        0.088007723142        0.051077285208        0.994809404662
        0.118200693890       -0.089192888232        0.988975846344
        0.212180351941       -0.269000439851        0.939477653598
        0.417649342446       -0.417649342446        0.806931256991
        0.700101716791       -0.417022801970        0.579611567158
        0.907571131406       -0.177997593647        0.380304480770
        0.907571131406        0.177997593647        0.380304480770
        0.700101716791        0.417022801970        0.579611567158
        0.417649342446        0.417649342446        0.806931256991
        0.212180351941        0.269000439851        0.939477653598
        0.118200693890        0.089192888232        0.988975846344
        0.104202132378       -0.138243241640        0.984901376661
        0.200330124503       -0.431644464479        0.879517423080
        0.417022801970       -0.700101716791        0.579611567158
        0.705564793306       -0.705564793306        0.066004885372
        0.890301052329       -0.294534457222       -0.347294528796
        0.890301052329        0.294534457222       -0.347294528796
        0.705564793306        0.705564793306        0.066004885372
        0.417022801970        0.700101716791        0.579611567158
        0.200330124503        0.431644464479        0.879517423080
        0.104202132378        0.138243241640        0.984901376661
        0.042009974066       -0.174958466296        0.983679163727
        0.083811693857       -0.554424321178        0.828003183605
        0.177997593647       -0.907571131406        0.380304480770
        0.294534457222       -0.890301052329       -0.347294528796
        0.355952003685       -0.355952003685       -0.864058066420
        0.355952003685        0.355952003685       -0.864058066420
        0.294534457222        0.890301052329       -0.347294528796
        0.177997593647        0.907571131406        0.380304480770
        0.083811693857        0.554424321178        0.828003183605
        0.042009974066        0.174958466296        0.983679163727
       -0.042009974066       -0.174958466296        0.983679163727
       -0.083811693857       -0.554424321178        0.828003183605
       -0.177997593647       -0.907571131406        0.380304480770
       -0.294534457222       -0.890301052329       -0.347294528796
       -0.355952003685       -0.355952003685       -0.864058066420
       -0.355952003685        0.355952003685       -0.864058066420
       -0.294534457222        0.890301052329       -0.347294528796
       -0.177997593647        0.907571131406        0.380304480770
       -0.083811693857        0.554424321178        0.828003183605
       -0.042009974066        0.174958466296        0.983679163727
       -0.104202132378       -0.138243241640        0.984901376661
       -0.200330124503       -0.431644464479        0.879517423080
       -0.417022801970       -0.700101716791        0.579611567158
       -0.705564793306       -0.705564793306        0.066004885372
       -0.890301052329       -0.294534457222       -0.347294528796
       -0.890301052329        0.294534457222       -0.347294528796
       -0.705564793306        0.705564793306        0.066004885372
       -0.417022801970        0.700101716791        0.579611567158
       -0.200330124503        0.431644464479        0.879517423080
       -0.104202132378        0.138243241640        0.984901376661
       -0.118200693890       -0.089192888232        0.988975846344
       -0.212180351941       -0.269000439851        0.939477653598
       -0.417649342446       -0.417649342446        0.806931256991
       -0.700101716791       -0.417022801970        0.579611567158
       -0.907571131406       -0.177997593647        0.380304480770
       -0.907571131406        0.177997593647        0.380304480770
       -0.700101716791        0.417022801970        0.579611567158
       -0.417649342446        0.417649342446        0.806931256991
       -0.212180351941        0.269000439851        0.939477653598
       -0.118200693890        0.089192888232        0.988975846344
       -0.088007723142       -0.051077285208        0.994809404662
       -0.146899841658       -0.146899841658        0.978182433415
       -0.269000439851       -0.212180351941        0.939477653598
       -0.431644464479       -0.200330124503        0.879517423080
       -0.554424321178       -0.083811693857        0.828003183605
       -0.554424321178        0.083811693857        0.828003183605
       -0.431644464479        0.200330124503        0.879517423080
       -0.269000439851        0.212180351941        0.939477653598
       -0.146899841658        0.146899841658        0.978182433415
       -0.088007723142        0.051077285208        0.994809404662
       -0.031992812402       -0.031992812402        0.998975935601
       -0.051077285208       -0.088007723142        0.994809404662
       -0.089192888232       -0.118200693890        0.988975846344
       -0.138243241640       -0.104202132378        0.984901376661
       -0.174958466296       -0.042009974066        0.983679163727
       -0.174958466296        0.042009974066        0.983679163727
       -0.138243241640        0.104202132378        0.984901376661
       -0.089192888232        0.118200693890        0.988975846344
       -0.051077285208        0.088007723142        0.994809404662
       -0.031992812402        0.031992812402        0.998975935601
# End: Data Text
# End: Segment
#
# Begin: Segment
# Begin: Header
#
# Title: SPIRIT Version 2.0.1 (f21dbacbd45b0)
#
# Desc: Image 2 of 20. -
#
# valuedim: 3   ## field dimensionality
# valueunits: none none none
# valuelabels: spin_x spin_y spin_z
#
## Fundamental mesh measurement unit. Treated as a label:
# meshunit: nm
#
# xmin: 0
# ymin: 0
# zmin: 0
# xmax: 0.9
# ymax: 0.9
# zmax: 0
#
# meshtype: rectangular
# xbase: 0
# ybase: 0
# zbase: 0
# xstepsize: 0.1
# ystepsize: 0.1
# zstepsize: 0.1
# xnodes: 10
# ynodes: 10
# znodes: 1
#
# End: Header
#
# Begin: Data Text
        0.027669922942       -0.027669922942        0.999234082049
        0.044339031294       -0.076662902675        0.996070705150
        0.078153711031       -0.104227711869        0.991477978339
        0.122686851444       -0.093092848197        0.988069662573
        0.156735996867       -0.037836366220        0.986915516484
        0.156735996867        0.037836366220        0.986915516484
        0.122686851444        0.093092848197        0.988069662573
        0.078153711031        0.104227711869        0.991477978339
        0.044339031294        0.076662902675        0.996070705150
        0.027669922942        0.027669922942        0.999234082049
        0.076662902676       -0.044339031294        0.996070705150
        0.128581920784       -0.128581920784        0.983327706970
        0.238456892964       -0.188685477382        0.952646891993
        0.389755191438       -0.181652282426        0.902825198494
        0.507652955114       -0.076986410630        0.858115126158
        0.507652955115        0.076986410630        0.858115126158
        0.389755191438        0.181652282426        0.902825198494
        0.238456892964        0.188685477382        0.952646891993
        0.128581920784        0.128581920784        0.983327706970
        0.076662902676        0.044339031294        0.996070705150
        0.104227711869       -0.078153711031        0.991477978339
        0.188685477382       -0.238456892964        0.952646891993
        0.379456004866       -0.379456004866        0.843816497079
        0.657099910980       -0.391699161824        0.644043068138
        0.872594176436       -0.170964069388        0.457548565977
        0.872594176436        0.170964069388        0.457548565977
        0.657099910980        0.391699161824        0.644043068138
        0.379456004866        0.379456004866        0.843816497078
        0.188685477382        0.238456892964        0.952646891993
        0.104227711869        0.078153711031        0.991477978339
        0.093092848197       -0.122686851444        0.988069662573
        0.181652282426       -0.389755191438        0.902825198494
        0.391699161824       -0.657099910980        0.644043068138
        0.698547267606       -0.698547267606        0.155123917691
        0.913215389873       -0.301573880424       -0.274027090532
        0.913215389873        0.301573880424       -0.274027090532
        0.698547267606        0.698547267606        0.155123917691
        0.391699161824        0.657099910980        0.644043068138
        0.181652282426        0.389755191438        0.902825198494
        0.093092848197        0.122686851444        0.988069662573
        0.037836366220       -0.156735996867        0.986915516484
        0.076986410630       -0.507652955114        0.858115126158
        0.170964069388       -0.872594176436        0.457548565977
        0.301573880423       -0.913215389873       -0.274027090532
        0.378117881921       -0.378117881921       -0.845017002635
        0.378117881921        0.378117881921       -0.845017002635
        0.301573880423        0.913215389873       -0.274027090532
        0.170964069388        0.872594176436        0.457548565977
        0.076986410630        0.507652955114        0.858115126158
        0.037836366220        0.156735996867        0.986915516484
       -0.037836366220       -0.156735996867        0.986915516484
       -0.076986410630       -0.507652955114        0.858115126158
       -0.170964069388       -0.872594176436        0.457548565977
       -0.301573880424       -0.913215389873       -0.274027090532
       -0.378117881921       -0.378117881921       -0.845017002635
       -0.378117881921        0.378117881921       -0.845017002635
       -0.301573880424        0.913215389873       -0.274027090532
       -0.170964069388        0.872594176436        0.457548565977
       -0.076986410630        0.507652955114        0.858115126158
       -0.037836366220        0.156735996867        0.986915516484
       -0.093092848197       -0.122686851444        0.988069662573
       -0.181652282426       -0.389755191438        0.902825198494
       -0.391699161824       -0.657099910980        0.644043068138
       -0.698547267606       -0.698547267606        0.155123917691
       -0.913215389873       -0.301573880424       -0.274027090532
       -0.913215389873        0.301573880423       -0.274027090532
       -0.698547267606        0.698547267606        0.155123917691
       -0.391699161825        0.657099910980        0.644043068138
       -0.181652282426        0.389755191438        0.902825198494
       -0.093092848197        0.122686851444        0.988069662573
       -0.104227711869       -0.078153711031        0.991477978339
       -0.188685477382       -0.238456892964        0.952646891993
       -0.379456004866       -0.379456004866        0.843816497079
       -0.657099910980       -0.391699161824        0.644043068138
       -0.872594176436       -0.170964069388        0.457548565977
       -0.872594176436        0.170964069388        0.457548565977
       -0.657099910980        0.391699161824        0.644043068138
       -0.379456004867        0.379456004866        0.843816497078
       -0.188685477382        0.238456892964        0.952646891993
       -0.104227711869        0.078153711031        0.991477978339
       -0.076662902676       -0.044339031294        0.996070705150
       -0.128581920784       -0.128581920784        0.983327706970
       -0.238456892964       -0.188685477382        0.952646891993
       -0.389755191438       -0.181652282426        0.902825198494
       -0.507652955114       -0.076986410630        0.858115126158
       -0.507652955114        0.076986410630        0.858115126158
       -0.389755191438        0.181652282426        0.902825198494
       -0.238456892964        0.188685477382        0.952646891993
       -0.128581920784        0.128581920784        0.983327706970
       -0.076662902676        0.044339031294        0.996070705150
       -0.027669922942       -0.027669922942        0.999234082049
       -0.044339031294       -0.076662902675        0.996070705150
       -0.078153711031       -0.104227711869        0.991477978339
       -0.122686851444       -0.093092848197        0.988069662573
       -0.156735996867       -0.037836366220        0.986915516484
       -0.156735996867        0.037836366220        0.986915516484
       -0.122686851444        0.093092848197        0.988069662573
       -0.078153711031        0.104227711869        0.991477978339
       -0.044339031294        0.076662902675        0.996070705150
       -0.027669922942        0.027669922942        0.999234082049
# End: Data Text
# End: Segment
#
# Begin: Segment
# Begin: Header
#
# Title: SPIRIT Version 2.0.1 (f21dbacbd45b0)
#
# Desc: Image 3 of 20. -
#
# valuedim: 3   ## field dimensionality
# valueunits: none none none
# valuelabels: spin_x spin_y spin_z
#
## Fundamental mesh measurement unit. Treated as a label:
# meshunit: nm
#
# xmin: 0
# ymin: 0
# zmin: 0
# xmax: 0.9
# ymax: 0.9
# zmax: 0
#
# meshtype: rectangular
# xbase: 0
# ybase: 0
# zbase: 0
# xstepsize: 0.1
# ystepsize: 0.1
# zstepsize: 0.1
# xnodes: 10
# ynodes: 10
# znodes: 1
#
# End: Header
#
# Begin: Data Text
        0.023785543534       -0.023785543535        0.999434087790
        0.038253000635       -0.066359972929        0.997062215679
        0.068034682019       -0.091312181408        0.993495529718
        0.108144778754       -0.082656197682        0.990693019968
        0.139503472549       -0.033885194387        0.989641639558
        0.139503472549        0.033885194388        0.989641639558
        0.108144778753        0.082656197683        0.990693019968
        0.068034682018        0.091312181408        0.993495529718
        0.038253000635        0.066359972929        0.997062215679
        0.023785543534        0.023785543534        0.999434087790
        0.066359972929       -0.038253000635        0.997062215679
        0.111811926918       -0.111811926919        0.987418951609
        0.209831420576       -0.166586384087        0.963441618146
        0.349123658513       -0.163531652001        0.922697171265
        0.461285052674       -0.070245373633        0.884466894611
        0.461285052674        0.070245373634        0.884466894611
        0.349123658511        0.163531652002        0.922697171265
        0.209831420575        0.166586384087        0.963441618146
        0.111811926918        0.111811926918        0.987418951610
        0.066359972928        0.038253000635        0.997062215679
        0.091312181408       -0.068034682019        0.993495529718
        0.166586384088       -0.209831420576        0.963441618146
        0.341673277750       -0.341673277749        0.875510561069
        0.610472164673       -0.364477587369        0.703192594148
        0.831232716441       -0.162818696848        0.531547028093
        0.831232716441        0.162818696849        0.531547028093
        0.610472164672        0.364477587370        0.703192594149
        0.341673277749        0.341673277749        0.875510561070
        0.166586384087        0.209831420576        0.963441618146
        0.091312181408        0.068034682019        0.993495529718
        0.082656197683       -0.108144778754        0.990693019968
        0.163531652002       -0.349123658513        0.922697171265
        0.364477587370       -0.610472164673        0.703192594148
        0.685284819635       -0.685284819634        0.246514567433
        0.931848500531       -0.306994618580       -0.193423566870
        0.931848500531        0.306994618581       -0.193423566869
        0.685284819634        0.685284819635        0.246514567435
        0.364477587369        0.610472164672        0.703192594149
        0.163531652002        0.349123658512        0.922697171265
        0.082656197683        0.108144778754        0.990693019968
        0.033885194388       -0.139503472550        0.989641639558
        0.070245373633       -0.461285052675        0.884466894611
        0.162818696849       -0.831232716441        0.531547028092
        0.306994618581       -0.931848500531       -0.193423566870
        0.402050243389       -0.402050243388       -0.822624582408
        0.402050243389        0.402050243389       -0.822624582408
        0.306994618581        0.931848500531       -0.193423566869
        0.162818696849        0.831232716441        0.531547028093
        0.070245373633        0.461285052674        0.884466894611
        0.033885194388        0.139503472550        0.989641639558
       -0.033885194387       -0.139503472550        0.989641639558
       -0.070245373633       -0.461285052675        0.884466894611
       -0.162818696849       -0.831232716441        0.531547028092
       -0.306994618581       -0.931848500531       -0.193423566870
       -0.402050243389       -0.402050243388       -0.822624582408
       -0.402050243389        0.402050243389       -0.822624582408
       -0.306994618581        0.931848500531       -0.193423566869
       -0.162818696848        0.831232716441        0.531547028094
       -0.070245373633        0.461285052674        0.884466894611
       -0.033885194387        0.139503472550        0.989641639558
       -0.082656197683       -0.108144778754        0.990693019968
       -0.163531652002       -0.349123658513        0.922697171265
       -0.364477587370       -0.610472164673        0.703192594148
       -0.685284819635       -0.685284819634        0.246514567434
       -0.931848500531       -0.306994618580       -0.193423566870
       -0.931848500531        0.306994618582       -0.193423566869
       -0.685284819634        0.685284819635        0.246514567435
       -0.364477587369        0.610472164672        0.703192594149
       -0.163531652001        0.349123658512        0.922697171265
       -0.082656197682        0.108144778753        0.990693019968
       -0.091312181408       -0.068034682019        0.993495529718
       -0.166586384088       -0.209831420576        0.963441618146
       -0.341673277750       -0.341673277750        0.875510561069
       -0.610472164673       -0.364477587369        0.703192594148
       -0.831232716441       -0.162818696848        0.531547028093
       -0.831232716441        0.162818696850        0.531547028093
       -0.610472164672        0.364477587370        0.703192594149
       -0.341673277749        0.341673277750        0.875510561070
       -0.166586384087        0.209831420576        0.963441618146
       -0.091312181408        0.068034682019        0.993495529718
       -0.066359972929       -0.038253000635        0.997062215679
       -0.111811926919       -0.111811926919        0.987418951609
       -0.209831420576       -0.166586384087        0.963441618146
       -0.349123658513       -0.163531652002        0.922697171265
       -0.461285052675       -0.070245373633        0.884466894611
       -0.461285052674        0.070245373634        0.884466894611
       -0.349123658512        0.163531652002        0.922697171265
       -0.209831420576        0.166586384088        0.963441618146
       -0.111811926918        0.111811926918        0.987418951610
       -0.066359972929        0.038253000635        0.997062215679
       -0.023785543535       -0.023785543535        0.999434087790
       -0.038253000635       -0.066359972929        0.997062215679
       -0.068034682019       -0.091312181408        0.993495529718
       -0.108144778754       -0.082656197683        0.990693019968
       -0.139503472550       -0.033885194387        0.989641639558
       -0.139503472550        0.033885194388        0.989641639558
       -0.108144778754        0.082656197683        0.990693019968
       -0.068034682019        0.091312181409        0.993495529718
       -0.038253000635        0.066359972929        0.997062215679
       -0.023785543535        0.023785543534        0.999434087790
# End: Data Text
# End: Segment
#
# Begin: Segment
# Begin: Header
#
# Title: SPIRIT Version 2.0.1 (f21dbacbd45b0)
#
# Desc: Image 4 of 20. -
#
# valuedim: 3   ## field dimensionality
# valueunits: none none none
# valuelabels: spin_x spin_y spin_z
#
## Fundamental mesh measurement unit. Treated as a label:
# meshunit: nm
#
# xmin: 0
# ymin: 0
# zmin: 0
# xmax: 0.9
# ymax: 0.9
# zmax: 0
#
# meshtype: rectangular
# xbase: 0
# ybase: 0
# zbase: 0
# xstepsize: 0.1
# ystepsize: 0.1
# zstepsize: 0.1
# xnodes: 10
# ynodes: 10
# znodes: 1
#
# End: Header
#
# Begin: Data Text
        0.020373909317       -0.020373909317        0.999584817631
        0.032850635019       -0.057205968825        0.997821784143
        0.058883113568       -0.079612320741        0.995085251284
        0.094700082014       -0.073023123530        0.992824011543
        0.123361416423       -0.030206157818        0.991901985565
        0.123361416424        0.030206157817        0.991901985565
        0.094700082015        0.073023123530        0.992824011543
        0.058883113569        0.079612320740        0.995085251284
        0.032850635020        0.057205968826        0.997821784143
        0.020373909318        0.020373909318        0.999584817631
        0.057205968825       -0.032850635019        0.997821784143
        0.096714802994       -0.096714802994        0.990602086493
        0.183382654635       -0.146137461890        0.972118636902
        0.310231643952       -0.146219694587        0.939348778679
        0.415894993875       -0.063694928876        0.907179315298
        0.415894993876        0.063694928875        0.907179315298
        0.310231643953        0.146219694586        0.939348778679
        0.183382654636        0.146137461890        0.972118636901
        0.096714802995        0.096714802995        0.990602086493
        0.057205968826        0.032850635020        0.997821784143
        0.079612320740       -0.058883113568        0.995085251284
        0.146137461890       -0.183382654634        0.972118636902
        0.304955262549       -0.304955262549        0.902222021282
        0.561118198366       -0.335893053844        0.756519810607
        0.784074925686       -0.153738546429        0.601324346964
        0.784074925687        0.153738546427        0.601324346963
        0.561118198369        0.335893053843        0.756519810606
        0.304955262551        0.304955262550        0.902222021282
        0.146137461891        0.183382654635        0.972118636901
        0.079612320740        0.058883113569        0.995085251284
        0.073023123529       -0.094700082012        0.992824011543
        0.146219694586       -0.310231643951        0.939348778680
        0.335893053842       -0.561118198366        0.756519810608
        0.665231756392       -0.665231756393        0.339018318937
        0.944771976387       -0.310401869084       -0.105150331922
        0.944771976388        0.310401869081       -0.105150331923
        0.665231756394        0.665231756392        0.339018318934
        0.335893053844        0.561118198368        0.756519810606
        0.146219694587        0.310231643952        0.939348778679
        0.073023123530        0.094700082014        0.992824011543
        0.030206157817       -0.123361416421        0.991901985565
        0.063694928875       -0.415894993873        0.907179315299
        0.153738546428       -0.784074925685        0.601324346966
        0.310401869083       -0.944771976387       -0.105150331921
        0.428076713469       -0.428076713470       -0.795927543668
        0.428076713469        0.428076713467       -0.795927543670
        0.310401869084        0.944771976387       -0.105150331925
        0.153738546429        0.784074925687        0.601324346963
        0.063694928876        0.415894993875        0.907179315298
        0.030206157818        0.123361416423        0.991901985565
       -0.030206157817       -0.123361416421        0.991901985565
       -0.063694928875       -0.415894993873        0.907179315299
       -0.153738546428       -0.784074925686        0.601324346965
       -0.310401869083       -0.944771976387       -0.105150331921
       -0.428076713469       -0.428076713470       -0.795927543669
       -0.428076713469        0.428076713467       -0.795927543670
       -0.310401869083        0.944771976387       -0.105150331925
       -0.153738546429        0.784074925687        0.601324346963
       -0.063694928875        0.415894993875        0.907179315298
       -0.030206157818        0.123361416423        0.991901985565
       -0.073023123529       -0.094700082012        0.992824011543
       -0.146219694586       -0.310231643951        0.939348778680
       -0.335893053842       -0.561118198367        0.756519810608
       -0.665231756392       -0.665231756393        0.339018318936
       -0.944771976387       -0.310401869084       -0.105150331922
       -0.944771976388        0.310401869081       -0.105150331923
       -0.665231756394        0.665231756392        0.339018318934
       -0.335893053844        0.561118198368        0.756519810606
       -0.146219694587        0.310231643953        0.939348778679
       -0.073023123530        0.094700082014        0.992824011543
       -0.079612320740       -0.058883113568        0.995085251284
       -0.146137461889       -0.183382654635        0.972118636902
       -0.304955262549       -0.304955262550        0.902222021282
       -0.561118198366       -0.335893053844        0.756519810608
       -0.784074925686       -0.153738546429        0.601324346965
       -0.784074925686        0.153738546427        0.601324346965
       -0.561118198368        0.335893053842        0.756519810607
       -0.304955262550        0.304955262550        0.902222021282
       -0.146137461890        0.183382654635        0.972118636901
       -0.079612320740        0.058883113569        0.995085251284
       -0.057205968825       -0.032850635019        0.997821784143
       -0.096714802993       -0.096714802994        0.990602086493
       -0.183382654634       -0.146137461891        0.972118636902
       -0.310231643951       -0.146219694587        0.939348778679
       -0.415894993873       -0.063694928876        0.907179315299
       -0.415894993873        0.063694928874        0.907179315299
       -0.310231643951        0.146219694586        0.939348778679
       -0.183382654635        0.146137461890        0.972118636902
       -0.096714802994        0.096714802995        0.990602086493
       -0.057205968825        0.032850635020        0.997821784143
       -0.020373909317       -0.020373909317        0.999584817631
       -0.032850635019       -0.057205968826        0.997821784143
       -0.058883113568       -0.079612320741        0.995085251284
       -0.094700082012       -0.073023123530        0.992824011543
       -0.123361416421       -0.030206157818        0.991901985565
       -0.123361416421        0.030206157817        0.991901985565
       -0.094700082012        0.073023123529        0.992824011543
       -0.058883113568        0.079612320740        0.995085251284
       -0.032850635019        0.057205968826        0.997821784143
       -0.020373909317        0.020373909318        0.999584817631
# End: Data Text
# End: Segment
#
# Begin: Segment
# Begin: Header
#
# Title: SPIRIT Version 2.0.1 (f21dbacbd45b0)
#
# Desc: Image 5 of 20. -
#
# valuedim: 3   ## field dimensionality
# valueunits: none none none
# valuelabels: spin_x spin_y spin_z
#
## Fundamental mesh measurement unit. Treated as a label:
# meshunit: nm
#
# xmin: 0
# ymin: 0
# zmin: 0
# xmax: 0.9
# ymax: 0.9
# zmax: 0
#
# meshtype: rectangular
# xbase: 0
# ybase: 0
# zbase: 0
# xstepsize: 0.1
# ystepsize: 0.1
# zstepsize: 0.1
# xnodes: 10
# ynodes: 10
# znodes: 1
#
# End: Header
#
# Begin: Data Text
        0.017468092390       -0.017468092390        0.999694819181
        0.028167531706       -0.049307781915        0.998386364490
        0.050757294971       -0.069294590833        0.996304148686
        0.082454802045       -0.064339626023        0.994515770686